 Gaussian 09, Revision A.02,
 Gaussian 09:  EM64L-G09RevA.02 11-Jun-2009

 -----------------------------------------------
 # B3LYP/aug-cc-pVTZ force td(Root=1, Nstates=1)
 -----------------------------------------------

 ---------
 g09 input
 ---------
 Symbolic Z-matrix:
 Charge =  0 Multiplicity = 1

                         Standard orientation:
 ---------------------------------------------------------------------
 Center     Atomic      Atomic             Coordinates (Angstroms)
 Number     Number       Type             X           Y           Z
 ---------------------------------------------------------------------
      1          2           0        0.000000    0.000000    0.546675
      2          2           0        0.000000    0.000000   -0.546675
 ---------------------------------------------------------------------

 SCF Done:  E(RB3LYP) =  -5.73054279975     A.U. after    7 cycles

 Excitation energies and oscillator strengths:

 Excited State   1:      Singlet-SGU   13.5065 eV   91.80 nm  f=0.0605  <S**2>=0.000
       2 ->  3         0.70702
 This state for optimization and/or second-order correction.
 Copying the excited state density for this state as the 1-particle RhoCI density.

 The electronic state is 1-SGG.
 Alpha  occ. eigenvalues --   -0.81629  -0.49184
 Alpha virt. eigenvalues --    0.04895   0.08309   0.22999   0.22999   0.43086
 Alpha virt. eigenvalues --    0.44708   0.44708   0.48321   0.69586   0.94085
 Alpha virt. eigenvalues --    1.18900   1.18901   1.35737   1.35737   1.53288

 Mulliken atomic charges:
              1
     1  He   0.000000
     2  He   0.000000
 Sum of Mulliken atomic charges =   0.00000

 Dipole moment (field-independent basis, Debye):
    X=              0.0000    Y=              0.0000    Z=              0.0000  Tot=              0.0000
 Quadrupole moment (field-independent basis, Debye-Ang):
   XX=             -2.1068   YY=             -2.1068   ZZ=             -2.8457
   XY=              0.0000   XZ=              0.0000   YZ=              0.0000

 Normal termination of Gaussian 09 at Tue Oct  6 00:20:45 2020.
