 Gaussian 09, Revision A.02,
 Gaussian 09:  EM64L-G09RevA.02 11-Jun-2009

 -------------------
 # B3LYP/6-31G force
 -------------------

 ---------
 g09 input
 ---------
 Symbolic Z-matrix:
 Charge =  0 Multiplicity = 1

                         Standard orientation:
 ---------------------------------------------------------------------
 Center     Atomic      Atomic             Coordinates (Angstroms)
 Number     Number       Type             X           Y           Z
 ---------------------------------------------------------------------
      1          6           0       -0.670129   -0.015449   -0.019351
      2          6           0        0.668857   -0.009658   -0.013694
      3          1           0       -1.152320    0.957227    0.046803
      4          1           0       -1.228747   -0.929514    0.061606
      5          1           0        1.079945    0.976124    0.047309
      6          1           0        1.308757   -0.853193    0.042550
 ---------------------------------------------------------------------

 SCF Done:  E(RB3LYP) =  -78.5666485882     A.U. after   11 cycles

 The electronic state is 1-A.
 Alpha  occ. eigenvalues --  -10.17857 -10.17509  -0.76240  -0.57754  -0.47890
 Alpha  occ. eigenvalues --   -0.41078  -0.35863  -0.26752
 Alpha virt. eigenvalues --    0.01545   0.11624   0.14846   0.16585   0.24551
 Alpha virt. eigenvalues --    0.32264   0.49078   0.55520   0.59976   0.63699
 Alpha virt. eigenvalues --    0.69642   0.73051   0.87813   0.91891   0.96058

 Mulliken atomic charges:
              1
     1  C   -0.258631
     2  C   -0.252951
     3  H    0.126933
     4  H    0.128619
     5  H    0.122266
     6  H    0.133764
 Sum of Mulliken atomic charges =   0.00000

 Dipole moment (field-independent basis, Debye):
    X=              0.0280    Y=              0.0243    Z=              0.2049  Tot=              0.2083
 Quadrupole moment (field-independent basis, Debye-Ang):
   XX=            -12.3771   YY=            -11.9844   ZZ=            -15.0391
   XY=             -0.1389   XZ=             -0.0258   YZ=              0.0019

 Normal termination of Gaussian 09 at Tue Oct 22 11:54:20 2019.
